<?xml version="1.0" encoding="UTF-8"?>

<!-- generated on 2025-06-27 17:36:12 by Eclipse SUMO sumo Version 1.13.0
<configuration xmlns:xsi="http://www.w3.org/2001/XMLSchema-instance" xsi:noNamespaceSchemaLocation="http://sumo.dlr.de/xsd/sumoConfiguration.xsd">

    <input>
        <net-file value="./data/./map.net.xml"/>
        <route-files value="./data/./route.rou.xml"/>
    </input>

    <output>
        <fcd-output value="./data/./output_fcd.xml"/>
    </output>

    <time>
        <end value="200"/>
    </time>

</configuration>
-->

<fcd-export xmlns:xsi="http://www.w3.org/2001/XMLSchema-instance" xsi:noNamespaceSchemaLocation="http://sumo.dlr.de/xsd/fcd_file.xsd">
    <timestep time="0.00">
        <vehicle id="0" x="2046.59" y="282.27" angle="23.03" type="DEFAULT_VEHTYPE" speed="0.00" pos="5.10" lane="37372750#1_1" slope="0.00"/>
    </timestep>
    <timestep time="1.00">
        <vehicle id="0" x="2047.43" y="284.31" angle="22.63" type="DEFAULT_VEHTYPE" speed="2.20" pos="7.30" lane="37372750#1_1" slope="0.00"/>
        <vehicle id="1" x="2028.11" y="638.68" angle="118.08" type="DEFAULT_VEHTYPE" speed="0.00" pos="5.10" lane="-37417655#1_0" slope="0.00"/>
    </timestep>
    <timestep time="2.00">
        <vehicle id="0" x="2049.04" y="288.21" angle="22.44" type="DEFAULT_VEHTYPE" speed="4.22" pos="11.52" lane="37372750#1_1" slope="0.00"/>
        <vehicle id="1" x="2029.84" y="637.76" angle="118.08" type="DEFAULT_VEHTYPE" speed="1.96" pos="7.06" lane="-37417655#1_0" slope="0.00"/>
    </timestep>
    <timestep time="3.00">
        <vehicle id="0" x="2051.65" y="294.52" angle="22.44" type="DEFAULT_VEHTYPE" speed="6.80" pos="18.32" lane="37372750#1_1" slope="0.00"/>
        <vehicle id="1" x="2033.76" y="635.67" angle="118.08" type="DEFAULT_VEHTYPE" speed="4.44" pos="11.50" lane="-37417655#1_0" slope="0.00"/>
    </timestep>
    <timestep time="4.00">
        <vehicle id="0" x="2055.08" y="302.83" angle="22.44" type="DEFAULT_VEHTYPE" speed="8.98" pos="27.30" lane="37372750#1_1" slope="0.00"/>
        <vehicle id="1" x="2038.22" y="632.23" angle="129.20" type="DEFAULT_VEHTYPE" speed="5.83" pos="17.33" lane="-37417655#1_0" slope="0.00"/>
        <vehicle id="4" x="1960.65" y="982.08" angle="162.53" type="DEFAULT_VEHTYPE" speed="0.00" pos="5.10" lane="-997370398_0" slope="0.00"/>
    </timestep>
    <timestep time="5.00">
        <vehicle id="0" x="2059.26" y="312.94" angle="22.44" type="DEFAULT_VEHTYPE" speed="10.92" pos="38.22" lane="37372750#1_1" slope="0.00"/>
        <vehicle id="1" x="2042.32" y="625.11" angle="150.09" type="DEFAULT_VEHTYPE" speed="8.21" pos="25.54" lane="-37417655#1_0" slope="0.00"/>
        <vehicle id="4" x="1961.28" y="980.09" angle="162.53" type="DEFAULT_VEHTYPE" speed="2.08" pos="7.18" lane="-997370398_0" slope="0.00"/>
        <vehicle id="5" x="2040.69" y="571.70" angle="227.19" type="DEFAULT_VEHTYPE" speed="0.00" pos="5.10" lane="-37417651#3_0" slope="0.00"/>
    </timestep>
    <timestep time="6.00">
        <vehicle id="0" x="2064.31" y="325.18" angle="22.44" type="DEFAULT_VEHTYPE" speed="13.22" pos="51.44" lane="37372750#1_1" slope="0.00"/>
        <vehicle id="1" x="2046.34" y="616.49" angle="159.69" type="DEFAULT_VEHTYPE" speed="9.65" pos="35.19" lane="-37417655#1_0" slope="0.00"/>
        <vehicle id="4" x="1962.68" y="975.65" angle="162.53" type="DEFAULT_VEHTYPE" speed="4.66" pos="11.84" lane="-997370398_0" slope="0.00"/>
        <vehicle id="5" x="2039.23" y="570.35" angle="227.19" type="DEFAULT_VEHTYPE" speed="1.99" pos="7.09" lane="-37417651#3_0" slope="0.00"/>
        <vehicle id="6" x="1776.22" y="941.71" angle="168.81" type="DEFAULT_VEHTYPE" speed="0.00" pos="5.10" lane="-116564899#2_0" slope="0.00"/>
    </timestep>
    <timestep time="7.00">
        <vehicle id="0" x="2069.95" y="338.84" angle="22.44" type="DEFAULT_VEHTYPE" speed="14.75" pos="66.18" lane="37372750#1_1" slope="0.00"/>
        <vehicle id="1" x="2047.61" y="605.50" angle="173.38" type="DEFAULT_VEHTYPE" speed="11.06" pos="46.24" lane="-37417655#1_0" slope="0.00"/>
        <vehicle id="4" x="1964.48" y="969.90" angle="162.53" type="DEFAULT_VEHTYPE" speed="6.02" pos="17.86" lane="-997370398_0" slope="0.00"/>
        <vehicle id="5" x="2036.68" y="567.99" angle="227.19" type="DEFAULT_VEHTYPE" speed="3.48" pos="10.57" lane="-37417651#3_0" slope="0.00"/>
        <vehicle id="6" x="1776.64" y="939.60" angle="168.81" type="DEFAULT_VEHTYPE" speed="2.14" pos="7.24" lane="-116564899#2_0" slope="0.00"/>
        <vehicle id="7" x="2762.53" y="658.77" angle="271.72" type="DEFAULT_VEHTYPE" speed="0.00" pos="5.10" lane="37372759#0_0" slope="0.00"/>
    </timestep>
    <timestep time="8.00">
        <vehicle id="0" x="2076.26" y="354.13" angle="22.44" type="DEFAULT_VEHTYPE" speed="16.51" pos="82.69" lane="37372750#1_1" slope="0.00"/>
        <vehicle id="1" x="2048.49" y="597.25" angle="174.35" type="DEFAULT_VEHTYPE" speed="8.31" pos="54.55" lane="-37417655#1_0" slope="0.00"/>
        <vehicle id="4" x="1966.95" y="962.06" angle="162.53" type="DEFAULT_VEHTYPE" speed="8.22" pos="26.08" lane="-997370398_0" slope="0.00"/>
        <vehicle id="5" x="2032.65" y="564.26" angle="227.19" type="DEFAULT_VEHTYPE" speed="5.49" pos="16.06" lane="-37417651#3_0" slope="0.00"/>
        <vehicle id="6" x="1777.32" y="936.12" angle="168.81" type="DEFAULT_VEHTYPE" speed="3.55" pos="10.79" lane="-116564899#2_0" slope="0.00"/>
        <vehicle id="7" x="2761.17" y="658.81" angle="271.72" type="DEFAULT_VEHTYPE" speed="1.36" pos="6.46" lane="37372759#0_0" slope="0.00"/>
        <vehicle id="8" x="2040.69" y="571.70" angle="227.19" type="DEFAULT_VEHTYPE" speed="0.00" pos="5.10" lane="-37417651#3_0" slope="0.00"/>
    </timestep>
    <timestep time="9.00">
        <vehicle id="0" x="2083.43" y="371.32" angle="23.04" type="DEFAULT_VEHTYPE" speed="18.59" pos="101.28" lane="37372750#1_1" slope="0.00"/>
        <vehicle id="1" x="2048.76" y="593.45" angle="175.80" type="DEFAULT_VEHTYPE" speed="3.81" pos="58.35" lane="-37417655#1_0" slope="0.00"/>
        <vehicle id="4" x="1970.10" y="952.05" angle="162.53" type="DEFAULT_VEHTYPE" speed="10.49" pos="36.57" lane="-997370398_0" slope="0.00"/>
        <vehicle id="5" x="2026.53" y="561.34" angle="249.99" type="DEFAULT_VEHTYPE" speed="6.97" pos="6.55" lane=":12954492058_0_0" slope="0.00"/>
        <vehicle id="6" x="1778.31" y="931.13" angle="168.81" type="DEFAULT_VEHTYPE" speed="5.09" pos="15.88" lane="-116564899#2_0" slope="0.00"/>
        <vehicle id="7" x="2758.30" y="658.90" angle="271.72" type="DEFAULT_VEHTYPE" speed="2.86" pos="9.32" lane="37372759#0_0" slope="0.00"/>
        <vehicle id="8" x="2039.66" y="570.75" angle="227.19" type="DEFAULT_VEHTYPE" speed="1.40" pos="6.50" lane="-37417651#3_0" slope="0.00"/>
        <vehicle id="9" x="2205.62" y="867.61" angle="347.03" type="DEFAULT_VEHTYPE" speed="0.00" pos="5.10" lane="37417682#1_0" slope="0.00"/>
    </timestep>
    <timestep time="10.00">
        <vehicle id="0" x="2091.74" y="390.85" angle="23.04" type="DEFAULT_VEHTYPE" speed="21.18" pos="122.47" lane="37372750#1_1" slope="0.00"/>
        <vehicle id="1" x="2048.90" y="587.05" angle="179.49" type="DEFAULT_VEHTYPE" speed="6.40" pos="5.23" lane=":437371880_12_0" slope="0.00"/>
        <vehicle id="10" x="2232.20" y="744.11" angle="347.94" type="DEFAULT_VEHTYPE" speed="0.00" pos="5.10" lane="37417682#0_0" slope="0.00"/>
        <vehicle id="4" x="1973.05" y="940.29" angle="167.25" type="DEFAULT_VEHTYPE" speed="12.14" pos="48.71" lane="-997370398_0" slope="0.00"/>
        <vehicle id="5" x="2018.29" y="563.10" angle="283.22" type="DEFAULT_VEHTYPE" speed="8.43" pos="7.31" lane="1409808438#0_0" slope="0.00"/>
        <vehicle id="6" x="1779.61" y="924.55" angle="168.81" type="DEFAULT_VEHTYPE" speed="6.71" pos="22.59" lane="-116564899#2_0" slope="0.00"/>
        <vehicle id="7" x="2753.98" y="659.03" angle="271.72" type="DEFAULT_VEHTYPE" speed="4.32" pos="13.64" lane="37372759#0_0" slope="0.00"/>
        <vehicle id="8" x="2037.27" y="568.54" angle="227.19" type="DEFAULT_VEHTYPE" speed="3.26" pos="9.76" lane="-37417651#3_0" slope="0.00"/>
        <vehicle id="9" x="2205.31" y="868.95" angle="347.03" type="DEFAULT_VEHTYPE" speed="1.38" pos="6.48" lane="37417682#1_0" slope="0.00"/>
    </timestep>
    <timestep time="11.00">
        <vehicle id="0" x="2100.58" y="411.64" angle="23.04" type="DEFAULT_VEHTYPE" speed="22.55" pos="145.02" lane="37372750#1_1" slope="0.00"/>
        <vehicle id="1" x="2047.06" y="579.00" angle="196.49" type="DEFAULT_VEHTYPE" speed="8.32" pos="13.55" lane=":437371880_12_0" slope="0.00"/>
        <vehicle id="10" x="2231.79" y="746.05" angle="347.94" type="DEFAULT_VEHTYPE" speed="1.98" pos="7.08" lane="37417682#0_0" slope="0.00"/>
        <vehicle id="11" x="2319.65" y="428.50" angle="323.11" type="DEFAULT_VEHTYPE" speed="0.00" pos="5.10" lane="-37730078_0" slope="0.00"/>
        <vehicle id="4" x="1976.02" y="927.16" angle="167.25" type="DEFAULT_VEHTYPE" speed="13.47" pos="62.18" lane="-997370398_0" slope="0.00"/>
        <vehicle id="5" x="2008.80" y="565.33" angle="283.22" type="DEFAULT_VEHTYPE" speed="9.75" pos="17.07" lane="1409808438#0_0" slope="0.00"/>
        <vehicle id="6" x="1781.29" y="916.06" angle="168.81" type="DEFAULT_VEHTYPE" speed="8.66" pos="31.25" lane="-116564899#2_0" slope="0.00"/>
        <vehicle id="7" x="2747.10" y="659.24" angle="271.72" type="DEFAULT_VEHTYPE" speed="6.87" pos="20.51" lane="37372759#0_0" slope="0.00"/>
        <vehicle id="8" x="2033.23" y="564.79" angle="227.19" type="DEFAULT_VEHTYPE" speed="5.51" pos="15.27" lane="-37417651#3_0" slope="0.00"/>
        <vehicle id="9" x="2204.70" y="871.59" angle="347.03" type="DEFAULT_VEHTYPE" speed="2.70" pos="9.18" lane="37417682#1_0" slope="0.00"/>
    </timestep>
    <timestep time="12.00">
        <vehicle id="0" x="2110.09" y="434.00" angle="23.04" type="DEFAULT_VEHTYPE" speed="24.25" pos="169.27" lane="37372750#1_1" slope="0.00"/>
        <vehicle id="1" x="2041.92" y="572.84" angle="224.29" type="DEFAULT_VEHTYPE" speed="8.10" pos="3.43" lane="-37417651#3_0" slope="0.00"/>
        <vehicle id="10" x="2230.92" y="750.14" angle="347.94" type="DEFAULT_VEHTYPE" speed="4.19" pos="11.27" lane="37417682#0_0" slope="0.00"/>
        <vehicle id="11" x="2318.77" y="429.66" angle="323.11" type="DEFAULT_VEHTYPE" speed="1.46" pos="6.56" lane="-37730078_0" slope="0.00"/>
        <vehicle id="4" x="1978.88" y="914.53" angle="167.25" type="DEFAULT_VEHTYPE" speed="12.94" pos="75.12" lane="-997370398_0" slope="0.00"/>
        <vehicle id="6" x="1783.39" y="905.48" angle="168.81" type="DEFAULT_VEHTYPE" speed="10.78" pos="42.03" lane="-116564899#2_0" slope="0.00"/>
        <vehicle id="7" x="2738.16" y="659.48" angle="271.49" type="DEFAULT_VEHTYPE" speed="8.93" pos="29.44" lane="37372759#0_0" slope="0.00"/>
        <vehicle id="8" x="2032.97" y="561.78" angle="198.11" type="DEFAULT_VEHTYPE" speed="3.57" pos="0.83" lane=":12954492058_9_0" slope="0.00"/>
        <vehicle id="9" x="2203.77" y="875.63" angle="347.03" type="DEFAULT_VEHTYPE" speed="4.14" pos="13.32" lane="37417682#1_0" slope="0.00"/>
    </timestep>
    <timestep time="13.00">
        <vehicle id="0" x="2120.22" y="457.82" angle="23.04" type="DEFAULT_VEHTYPE" speed="25.83" pos="195.10" lane="37372750#1_1" slope="0.00"/>
        <vehicle id="1" x="2037.67" y="568.91" angle="227.19" type="DEFAULT_VEHTYPE" speed="5.78" pos="9.21" lane="-37417651#3_0" slope="0.00"/>
        <vehicle id="10" x="2229.76" y="755.54" angle="347.94" type="DEFAULT_VEHTYPE" speed="5.52" pos="16.79" lane="37417682#0_0" slope="0.00"/>
        <vehicle id="11" x="2316.44" y="432.77" angle="323.11" type="DEFAULT_VEHTYPE" speed="3.89" pos="10.44" lane="-37730078_0" slope="0.00"/>
        <vehicle id="13" x="1770.21" y="1453.41" angle="200.89" type="DEFAULT_VEHTYPE" speed="0.00" pos="5.10" lane="-1165942206#1_0" slope="0.00"/>
        <vehicle id="4" x="1981.75" y="901.86" angle="167.25" type="DEFAULT_VEHTYPE" speed="12.99" pos="88.11" lane="-997370398_0" slope="0.00"/>
        <vehicle id="6" x="1785.81" y="893.25" angle="168.81" type="DEFAULT_VEHTYPE" speed="12.47" pos="54.50" lane="-116564899#2_0" slope="0.00"/>
        <vehicle id="7" x="2726.81" y="659.72" angle="271.17" type="DEFAULT_VEHTYPE" speed="11.34" pos="40.78" lane="37372759#0_0" slope="0.00"/>
        <vehicle id="8" x="2035.69" y="562.71" angle="103.93" type="DEFAULT_VEHTYPE" speed="3.08" pos="0.49" lane="37417651#3_0" slope="0.00"/>
        <vehicle id="9" x="2202.27" y="882.14" angle="347.03" type="DEFAULT_VEHTYPE" speed="6.69" pos="20.01" lane="37417682#1_0" slope="0.00"/>
    </timestep>
    <timestep time="14.00">
        <vehicle id="0" x="2134.01" y="481.35" angle="30.63" type="DEFAULT_VEHTYPE" speed="27.23" pos="222.33" lane="37372750#1_1" slope="0.00"/>
        <vehicle id="1" x="2033.85" y="565.37" angle="227.19" type="DEFAULT_VEHTYPE" speed="5.22" pos="14.43" lane="-37417651#3_0" slope="0.00"/>
        <vehicle id="10" x="2228.23" y="762.71" angle="347.94" type="DEFAULT_VEHTYPE" speed="7.33" pos="24.12" lane="37417682#0_0" slope="0.00"/>
        <vehicle id="11" x="2312.83" y="437.58" angle="323.11" type="DEFAULT_VEHTYPE" speed="6.01" pos="16.45" lane="-37730078_0" slope="0.00"/>
        <vehicle id="13" x="1769.51" y="1451.56" angle="200.89" type="DEFAULT_VEHTYPE" speed="1.98" pos="7.08" lane="-1165942206#1_0" slope="0.00"/>
        <vehicle id="14" x="2787.30" y="1199.18" angle="257.19" type="DEFAULT_VEHTYPE" speed="0.00" pos="5.10" lane="434722685#0_1" slope="0.00"/>
        <vehicle id="4" x="1984.77" y="888.51" angle="167.25" type="DEFAULT_VEHTYPE" speed="13.69" pos="101.80" lane="-997370398_0" slope="0.00"/>
        <vehicle id="6" x="1788.41" y="880.11" angle="168.81" type="DEFAULT_VEHTYPE" speed="13.39" pos="67.88" lane="-116564899#2_0" slope="0.00"/>
        <vehicle id="7" x="2712.96" y="660.00" angle="271.17" type="DEFAULT_VEHTYPE" speed="13.83" pos="54.61" lane="37372759#0_0" slope="0.00"/>
        <vehicle id="8" x="2039.60" y="566.33" angle="47.21" type="DEFAULT_VEHTYPE" speed="5.33" pos="5.82" lane="37417651#3_0" slope="0.00"/>
        <vehicle id="9" x="2200.22" y="891.03" angle="347.03" type="DEFAULT_VEHTYPE" speed="9.11" pos="29.13" lane="37417682#1_0" slope="0.00"/>
    </timestep>
    <timestep time="15.00">
        <vehicle id="0" x="2148.69" y="506.13" angle="30.63" type="DEFAULT_VEHTYPE" speed="28.75" pos="251.08" lane="37372750#1_1" slope="0.00"/>
        <vehicle id="1" x="2029.94" y="559.84" angle="210.75" type="DEFAULT_VEHTYPE" speed="6.87" pos="4.82" lane=":12954492058_1_0" slope="0.00"/>
        <vehicle id="10" x="2226.40" y="771.28" angle="347.94" type="DEFAULT_VEHTYPE" speed="8.77" pos="32.89" lane="37417682#0_0" slope="0.00"/>
        <vehicle id="11" x="2308.15" y="443.82" angle="323.11" type="DEFAULT_VEHTYPE" speed="7.80" pos="24.26" lane="-37730078_0" slope="0.00"/>
        <vehicle id="13" x="1768.20" y="1448.13" angle="200.89" type="DEFAULT_VEHTYPE" speed="3.67" pos="10.75" lane="-1165942206#1_0" slope="0.00"/>
        <vehicle id="14" x="2784.81" y="1198.61" angle="257.19" type="DEFAULT_VEHTYPE" speed="2.55" pos="7.65" lane="434722685#0_1" slope="0.00"/>
        <vehicle id="15" x="2205.62" y="867.61" angle="347.03" type="DEFAULT_VEHTYPE" speed="0.00" pos="5.10" lane="37417682#1_0" slope="0.00"/>
        <vehicle id="4" x="1987.62" y="875.90" angle="167.25" type="DEFAULT_VEHTYPE" speed="12.93" pos="114.73" lane="-997370398_0" slope="0.00"/>
        <vehicle id="6" x="1791.13" y="866.35" angle="168.81" type="DEFAULT_VEHTYPE" speed="14.03" pos="81.92" lane="-116564899#2_0" slope="0.00"/>
        <vehicle id="7" x="2696.68" y="660.36" angle="271.37" type="DEFAULT_VEHTYPE" speed="16.26" pos="70.87" lane="37372759#0_0" slope="0.00"/>
        <vehicle id="8" x="2044.88" y="571.22" angle="47.21" type="DEFAULT_VEHTYPE" speed="7.19" pos="13.01" lane="37417651#3_0" slope="0.00"/>
        <vehicle id="9" x="2197.80" y="901.55" angle="347.03" type="DEFAULT_VEHTYPE" speed="10.80" pos="39.93" lane="37417682#1_0" slope="0.00"/>
    </timestep>
    <timestep time="16.00">
        <vehicle id="0" x="2163.99" y="530.95" angle="36.65" type="DEFAULT_VEHTYPE" speed="29.15" pos="280.23" lane="37372750#1_1" slope="0.00"/>
        <vehicle id="1" x="2029.13" y="550.53" angle="180.46" type="DEFAULT_VEHTYPE" speed="9.40" pos="2.29" lane="-37417651#2_0" slope="0.00"/>
        <vehicle id="10" x="2224.11" y="781.98" angle="347.94" type="DEFAULT_VEHTYPE" speed="10.93" pos="43.83" lane="37417682#0_0" slope="0.00"/>
        <vehicle id="11" x="2301.93" y="452.10" angle="323.11" type="DEFAULT_VEHTYPE" speed="10.36" pos="34.62" lane="-37730078_0" slope="0.00"/>
        <vehicle id="13" x="1766.42" y="1443.46" angle="200.89" type="DEFAULT_VEHTYPE" speed="5.00" pos="15.74" lane="-1165942206#1_0" slope="0.00"/>
        <vehicle id="14" x="2780.17" y="1197.56" angle="257.19" type="DEFAULT_VEHTYPE" speed="4.76" pos="12.41" lane="434722685#0_1" slope="0.00"/>
        <vehicle id="15" x="2205.15" y="869.61" angle="347.03" type="DEFAULT_VEHTYPE" speed="2.05" pos="7.15" lane="37417682#1_0" slope="0.00"/>
        <vehicle id="4" x="1990.60" y="862.75" angle="167.25" type="DEFAULT_VEHTYPE" speed="13.48" pos="128.22" lane="-997370398_0" slope="0.00"/>
        <vehicle id="6" x="1793.73" y="853.23" angle="168.81" type="DEFAULT_VEHTYPE" speed="13.38" pos="95.29" lane="-116564899#2_0" slope="0.00"/>
        <vehicle id="7" x="2678.89" y="660.79" angle="271.37" type="DEFAULT_VEHTYPE" speed="17.76" pos="88.64" lane="37372759#0_0" slope="0.00"/>
        <vehicle id="8" x="2051.05" y="577.93" angle="40.64" type="DEFAULT_VEHTYPE" speed="9.14" pos="6.78" lane=":437371880_9_0" slope="0.00"/>
        <vehicle id="9" x="2195.29" y="912.47" angle="347.03" type="DEFAULT_VEHTYPE" speed="11.21" pos="51.13" lane="37417682#1_0" slope="0.00"/>
    </timestep>
    <timestep time="17.00">
        <vehicle id="0" x="2183.37" y="551.12" angle="43.85" type="DEFAULT_VEHTYPE" speed="27.92" pos="308.15" lane="37372750#1_1" slope="0.00"/>
        <vehicle id="1" x="2030.98" y="538.77" angle="171.09" type="DEFAULT_VEHTYPE" speed="11.90" pos="14.19" lane="-37417651#2_0" slope="0.00"/>
        <vehicle id="10" x="2221.42" y="794.59" angle="347.94" type="DEFAULT_VEHTYPE" speed="12.89" pos="56.72" lane="37417682#0_0" slope="0.00"/>
        <vehicle id="11" x="2294.88" y="460.82" angle="319.99" type="DEFAULT_VEHTYPE" speed="11.21" pos="45.83" lane="-37730078_0" slope="0.00"/>
        <vehicle id="13" x="1763.74" y="1436.45" angle="200.89" type="DEFAULT_VEHTYPE" speed="7.51" pos="23.25" lane="-1165942206#1_0" slope="0.00"/>
        <vehicle id="14" x="2773.17" y="1195.97" angle="257.19" type="DEFAULT_VEHTYPE" speed="7.17" pos="19.58" lane="434722685#0_1" slope="0.00"/>
        <vehicle id="15" x="2204.34" y="873.17" angle="347.03" type="DEFAULT_VEHTYPE" speed="3.65" pos="10.80" lane="37417682#1_0" slope="0.00"/>
        <vehicle id="4" x="1993.53" y="849.80" angle="167.25" type="DEFAULT_VEHTYPE" speed="13.27" pos="141.49" lane="-997370398_0" slope="0.00"/>
        <vehicle id="6" x="1796.25" y="840.46" angle="168.81" type="DEFAULT_VEHTYPE" speed="13.01" pos="108.31" lane="-116564899#2_0" slope="0.00"/>
        <vehicle id="7" x="2659.05" y="661.26" angle="271.37" type="DEFAULT_VEHTYPE" speed="19.82" pos="108.46" lane="37372759#0_0" slope="0.00"/>
        <vehicle id="8" x="2058.70" y="586.80" angle="42.81" type="DEFAULT_VEHTYPE" speed="11.73" pos="18.51" lane=":437371880_9_0" slope="0.00"/>
        <vehicle id="9" x="2192.70" y="923.71" angle="347.03" type="DEFAULT_VEHTYPE" speed="11.53" pos="62.66" lane="37417682#1_0" slope="0.00"/>
    </timestep>
    <timestep time="18.00">
        <vehicle id="0" x="2200.48" y="568.93" angle="43.85" type="DEFAULT_VEHTYPE" speed="24.65" pos="332.80" lane="37372750#1_1" slope="0.00"/>
        <vehicle id="1" x="2032.93" y="526.34" angle="171.09" type="DEFAULT_VEHTYPE" speed="12.58" pos="26.78" lane="-37417651#2_0" slope="0.00"/>
        <vehicle id="10" x="2218.93" y="806.26" angle="347.94" type="DEFAULT_VEHTYPE" speed="11.94" pos="68.66" lane="37417682#0_0" slope="0.00"/>
        <vehicle id="11" x="2287.88" y="469.16" angle="319.99" type="DEFAULT_VEHTYPE" speed="10.89" pos="56.72" lane="-37730078_0" slope="0.00"/>
        <vehicle id="13" x="1760.32" y="1427.50" angle="200.89" type="DEFAULT_VEHTYPE" speed="9.58" pos="32.83" lane="-1165942206#1_0" slope="0.00"/>
        <vehicle id="14" x="2764.17" y="1193.92" angle="257.18" type="DEFAULT_VEHTYPE" speed="9.33" pos="5.45" lane="434722685#1_1" slope="0.00"/>
        <vehicle id="15" x="2203.07" y="878.66" angle="347.03" type="DEFAULT_VEHTYPE" speed="5.63" pos="16.43" lane="37417682#1_0" slope="0.00"/>
        <vehicle id="18" x="2178.18" y="527.06" angle="37.83" type="DEFAULT_VEHTYPE" speed="0.00" pos="5.10" lane="37730069#1_0" slope="0.00"/>
        <vehicle id="4" x="1994.12" y="836.66" angle="180.96" type="DEFAULT_VEHTYPE" speed="13.22" pos="154.71" lane="-997370398_0" slope="0.00"/>
        <vehicle id="6" x="1799.00" y="826.56" angle="168.81" type="DEFAULT_VEHTYPE" speed="14.17" pos="122.47" lane="-116564899#2_0" slope="0.00"/>
        <vehicle id="7" x="2637.03" y="661.79" angle="271.37" type="DEFAULT_VEHTYPE" speed="21.99" pos="130.45" lane="37372759#0_0" slope="0.00"/>
        <vehicle id="8" x="2069.40" y="594.63" angle="55.26" type="DEFAULT_VEHTYPE" speed="13.28" pos="10.58" lane="37417651#4_0" slope="0.00"/>
        <vehicle id="9" x="2190.18" y="934.65" angle="347.03" type="DEFAULT_VEHTYPE" speed="11.23" pos="73.89" lane="37417682#1_0" slope="0.00"/>
    </timestep>
    <timestep time="19.00">
        <vehicle id="0" x="2214.91" y="583.02" angle="49.42" type="DEFAULT_VEHTYPE" speed="20.15" pos="352.95" lane="37372750#1_1" slope="0.00"/>
        <vehicle id="1" x="2034.76" y="514.67" angle="171.09" type="DEFAULT_VEHTYPE" speed="11.81" pos="38.59" lane="-37417651#2_0" slope="0.00"/>
        <vehicle id="10" x="2216.28" y="818.65" angle="347.94" type="DEFAULT_VEHTYPE" speed="12.67" pos="81.33" lane="37417682#0_0" slope="0.00"/>
        <vehicle id="11" x="2280.33" y="478.16" angle="319.99" type="DEFAULT_VEHTYPE" speed="11.75" pos="68.47" lane="-37730078_0" slope="0.00"/>
        <vehicle id="13" x="1756.37" y="1417.14" angle="200.89" type="DEFAULT_VEHTYPE" speed="11.09" pos="43.92" lane="-1165942206#1_0" slope="0.00"/>
        <vehicle id="14" x="2753.45" y="1191.48" angle="257.18" type="DEFAULT_VEHTYPE" speed="10.99" pos="16.45" lane="434722685#1_1" slope="0.00"/>
        <vehicle id="15" x="2201.31" y="886.31" angle="347.03" type="DEFAULT_VEHTYPE" speed="7.85" pos="24.29" lane="37417682#1_0" slope="0.00"/>
        <vehicle id="18" x="2179.48" y="528.29" angle="42.45" type="DEFAULT_VEHTYPE" speed="1.79" pos="6.89" lane="37730069#1_0" slope="0.00"/>
        <vehicle id="19" x="2764.52" y="1194.00" angle="257.18" type="DEFAULT_VEHTYPE" speed="0.00" pos="5.10" lane="434722685#1_1" slope="0.00"/>
        <vehicle id="4" x="1993.95" y="826.70" angle="180.96" type="DEFAULT_VEHTYPE" speed="9.97" pos="164.68" lane="-997370398_0" slope="0.00"/>
        <vehicle id="6" x="1801.53" y="813.79" angle="168.81" type="DEFAULT_VEHTYPE" speed="13.02" pos="135.49" lane="-116564899#2_0" slope="0.00"/>
        <vehicle id="7" x="2613.96" y="662.34" angle="271.37" type="DEFAULT_VEHTYPE" speed="23.05" pos="153.50" lane="37372759#0_0" slope="0.00"/>
        <vehicle id="8" x="2080.44" y="602.41" angle="54.86" type="DEFAULT_VEHTYPE" speed="13.51" pos="24.09" lane="37417651#4_0" slope="0.00"/>
        <vehicle id="9" x="2187.57" y="945.99" angle="347.03" type="DEFAULT_VEHTYPE" speed="11.64" pos="85.53" lane="37417682#1_0" slope="0.00"/>
    </timestep>
    <timestep time="20.00">
        <vehicle id="0" x="2226.81" y="593.22" angle="49.42" type="DEFAULT_VEHTYPE" speed="15.65" pos="368.59" lane="37372750#1_1" slope="0.00"/>
        <vehicle id="1" x="2033.45" y="502.56" angle="207.75" type="DEFAULT_VEHTYPE" speed="12.82" pos="51.40" lane="-37417651#2_0" slope="0.00"/>
        <vehicle id="10" x="2213.63" y="831.06" angle="347.94" type="DEFAULT_VEHTYPE" speed="12.69" pos="94.02" lane="37417682#0_0" slope="0.00"/>
        <vehicle id="11" x="2272.89" y="487.02" angle="319.99" type="DEFAULT_VEHTYPE" speed="11.57" pos="80.04" lane="-37730078_0" slope="0.00"/>
        <vehicle id="13" x="1751.75" y="1405.04" angle="200.89" type="DEFAULT_VEHTYPE" speed="12.95" pos="56.87" lane="-1165942206#1_0" slope="0.00"/>
        <vehicle id="14" x="2740.92" y="1188.50" angle="256.00" type="DEFAULT_VEHTYPE" speed="12.88" pos="29.33" lane="434722685#1_1" slope="0.00"/>
        <vehicle id="15" x="2198.98" y="896.44" angle="347.03" type="DEFAULT_VEHTYPE" speed="10.40" pos="34.69" lane="37417682#1_0" slope="0.00"/>
        <vehicle id="18" x="2182.29" y="530.98" angle="46.28" type="DEFAULT_VEHTYPE" speed="3.90" pos="10.78" lane="37730069#1_0" slope="0.00"/>
        <vehicle id="19" x="2762.71" y="1193.59" angle="257.18" type="DEFAULT_VEHTYPE" speed="1.85" pos="6.95" lane="434722685#1_1" slope="0.00"/>
        <vehicle id="20" x="1731.73" y="5.34" angle="345.49" type="DEFAULT_VEHTYPE" speed="0.00" pos="5.10" lane="37417651#0_0" slope="0.00"/>
        <vehicle id="4" x="1993.86" y="821.22" angle="180.96" type="DEFAULT_VEHTYPE" speed="5.47" pos="170.15" lane="-997370398_0" slope="0.00"/>
        <vehicle id="6" x="1804.25" y="800.05" angle="168.81" type="DEFAULT_VEHTYPE" speed="14.01" pos="149.50" lane="-116564899#2_0" slope="0.00"/>
        <vehicle id="7" x="2591.68" y="662.87" angle="271.37" type="DEFAULT_VEHTYPE" speed="22.25" pos="175.75" lane="37372759#0_0" slope="0.00"/>
        <vehicle id="8" x="2092.13" y="610.64" angle="54.86" type="DEFAULT_VEHTYPE" speed="14.30" pos="38.39" lane="37417651#4_0" slope="0.00"/>
        <vehicle id="9" x="2185.08" y="956.80" angle="347.03" type="DEFAULT_VEHTYPE" speed="11.09" pos="96.62" lane="37417682#1_0" slope="0.00"/>
    </timestep>
    <timestep time="21.00">
        <vehicle id="0" x="2235.30" y="600.48" angle="49.42" type="DEFAULT_VEHTYPE" speed="11.15" pos="379.74" lane="37372750#1_1" slope="0.00"/>
        <vehicle id="1" x="2027.87" y="491.96" angle="207.75" type="DEFAULT_VEHTYPE" speed="11.98" pos="63.38" lane="-37417651#2_0" slope="0.00"/>
        <vehicle id="10" x="2211.31" y="841.91" angle="347.94" type="DEFAULT_VEHTYPE" speed="11.09" pos="105.11" lane="37417682#0_0" slope="0.00"/>
        <vehicle id="11" x="2265.39" y="495.95" angle="319.99" type="DEFAULT_VEHTYPE" speed="11.66" pos="91.70" lane="-37730078_0" slope="0.00"/>
        <vehicle id="13" x="1746.65" y="1391.68" angle="200.89" type="DEFAULT_VEHTYPE" speed="14.30" pos="71.17" lane="-1165942206#1_0" slope="0.00"/>
        <vehicle id="14" x="2726.99" y="1185.03" angle="256.00" type="DEFAULT_VEHTYPE" speed="14.35" pos="43.68" lane="434722685#1_1" slope="0.00"/>
        <vehicle id="15" x="2196.20" y="908.50" angle="347.03" type="DEFAULT_VEHTYPE" speed="12.37" pos="47.05" lane="37417682#1_0" slope="0.00"/>
        <vehicle id="18" x="2184.99" y="533.57" angle="46.28" type="DEFAULT_VEHTYPE" speed="3.74" pos="14.53" lane="37730069#1_0" slope="0.00"/>
        <vehicle id="19" x="2758.48" y="1192.63" angle="257.18" type="DEFAULT_VEHTYPE" speed="4.34" pos="11.29" lane="434722685#1_1" slope="0.00"/>
        <vehicle id="20" x="1731.35" y="6.80" angle="345.49" type="DEFAULT_VEHTYPE" speed="1.51" pos="6.61" lane="37417651#0_0" slope="0.00"/>
        <vehicle id="21" x="2177.06" y="674.33" angle="234.86" type="DEFAULT_VEHTYPE" speed="0.00" pos="5.10" lane="-37417651#4_0" slope="0.00"/>
        <vehicle id="4" x="1992.96" y="814.83" angle="190.13" type="DEFAULT_VEHTYPE" speed="6.52" pos="4.30" lane=":9209391898_0_0" slope="0.00"/>
        <vehicle id="6" x="1806.86" y="786.84" angle="168.81" type="DEFAULT_VEHTYPE" speed="13.47" pos="162.97" lane="-116564899#2_0" slope="0.00"/>
        <vehicle id="7" x="2568.90" y="663.41" angle="271.37" type="DEFAULT_VEHTYPE" speed="22.76" pos="198.51" lane="37372759#0_0" slope="0.00"/>
        <vehicle id="8" x="2103.20" y="618.43" angle="54.86" type="DEFAULT_VEHTYPE" speed="13.54" pos="51.93" lane="37417651#4_0" slope="0.00"/>
        <vehicle id="9" x="2182.37" y="968.56" angle="347.03" type="DEFAULT_VEHTYPE" speed="12.07" pos="108.68" lane="37417682#1_0" slope="0.00"/>
    </timestep>
    <timestep time="22.00">
        <vehicle id="0" x="2238.93" y="605.84" angle="30.17" type="DEFAULT_VEHTYPE" speed="6.65" pos="6.21" lane=":442554397_2_0" slope="0.00"/>
        <vehicle id="1" x="2019.29" y="483.58" angle="232.68" type="DEFAULT_VEHTYPE" speed="12.23" pos="75.61" lane="-37417651#2_0" slope="0.00"/>
        <vehicle id="10" x="2209.92" y="848.43" angle="347.94" type="DEFAULT_VEHTYPE" speed="6.67" pos="111.78" lane="37417682#0_0" slope="0.00"/>
        <vehicle id="11" x="2258.13" y="504.60" angle="319.99" type="DEFAULT_VEHTYPE" speed="11.29" pos="102.99" lane="-37730078_0" slope="0.00"/>
        <vehicle id="13" x="1741.44" y="1378.04" angle="200.89" type="DEFAULT_VEHTYPE" speed="14.60" pos="85.77" lane="-1165942206#1_0" slope="0.00"/>
        <vehicle id="14" x="2711.22" y="1181.10" angle="256.00" type="DEFAULT_VEHTYPE" speed="16.26" pos="59.94" lane="434722685#1_1" slope="0.00"/>
        <vehicle id="15" x="2193.12" y="921.88" angle="347.03" type="DEFAULT_VEHTYPE" speed="13.73" pos="60.79" lane="37417682#1_0" slope="0.00"/>
        <vehicle id="18" x="2185.62" y="536.75" angle="20.47" type="DEFAULT_VEHTYPE" speed="3.80" pos="1.18" lane=":442554516_11_0" slope="0.00"/>
        <vehicle id="19" x="2751.72" y="1191.09" angle="257.18" type="DEFAULT_VEHTYPE" speed="6.93" pos="18.22" lane="434722685#1_1" slope="0.00"/>
        <vehicle id="20" x="1730.64" y="10.38" angle="347.85" type="DEFAULT_VEHTYPE" speed="3.70" pos="10.31" lane="37417651#0_0" slope="0.00"/>